216
Lattice="17.472 0.0 0.0 8.735999999999997 15.13119585492171 0.0 0.0 0.0 29.119999999999997" Properties=species:S:1:pos:R:3:tags:I:1:forces:R:3:magmoms:R:1 energy=-987.0470061106477 dipole="-2.438151255788586 -0.9352640053205357 1.7272873677930838" magmom=0.0 free_energy=-987.7890301574904 pbc="T T F"
Au       0.00000000       0.00000000       6.00000000        4      -0.00691280      -0.00085366      -0.18544969       0.00000000
Au       2.91200000       0.00000000       6.00000000        4      -0.00376845      -0.00187331      -0.18912074       0.00000000
Au       5.82400000       0.00000000       6.00000000        4       0.00148787      -0.00092100      -0.18335050       0.00000000
Au       8.73600000       0.00000000       6.00000000        4      -0.00299499      -0.00057753      -0.18427102       0.00000000
Au      11.64800000       0.00000000       6.00000000        4      -0.00019313      -0.00151818      -0.18872564       0.00000000
Au      14.56000000       0.00000000       6.00000000        4       0.00413894      -0.00127431      -0.18594746       0.00000000
Au       1.45600000       2.52186598       6.00000000        4      -0.00585959      -0.00361357      -0.18715671       0.00000000
Au       4.36800000       2.52186598       6.00000000        4      -0.00044835      -0.00119228      -0.18663387       0.00000000
Au       7.28000000       2.52186598       6.00000000        4      -0.00025910       0.00127738      -0.18504721       0.00000000
Au      10.19200000       2.52186598       6.00000000        4      -0.00244886      -0.00075483      -0.18779671       0.00000000
Au      13.10400000       2.52186598       6.00000000        4       0.00208976      -0.00279574      -0.18826243       0.00000000
Au      16.01600000       2.52186598       6.00000000        4      -0.00135645      -0.00808850      -0.18602604       0.00000000
Au       2.91200000       5.04373195       6.00000000        4      -0.00084271       0.00192153      -0.18422622       0.00000000
Au       5.82400000       5.04373195       6.00000000        4       0.00067741       0.00030389      -0.18728344       0.00000000
Au       8.73600000       5.04373195       6.00000000        4      -0.00220139      -0.00036657      -0.18805614       0.00000000
Au      11.64800000       5.04373195       6.00000000        4      -0.00199395       0.00111786      -0.18505818       0.00000000
Au      14.56000000       5.04373195       6.00000000        4      -0.00250555       0.00149250      -0.19289769       0.00000000
Au      17.47200000       5.04373195       6.00000000        4      -0.00062355       0.00135672      -0.19257112       0.00000000
Au       4.36800000       7.56559793       6.00000000        4      -0.00104014      -0.00197318      -0.18252532       0.00000000
Au       7.28000000       7.56559793       6.00000000        4      -0.00104231      -0.00246645      -0.18868639       0.00000000
Au      10.19200000       7.56559793       6.00000000        4      -0.00204663      -0.00277740      -0.18087328       0.00000000
Au      13.10400000       7.56559793       6.00000000        4      -0.00287585      -0.00105068      -0.18253762       0.00000000
Au      16.01600000       7.56559793       6.00000000        4      -0.00137529      -0.00010788      -0.18597042       0.00000000
Au      18.92800000       7.56559793       6.00000000        4       0.00045967       0.00016380      -0.18468731       0.00000000
Au       5.82400000      10.08746390       6.00000000        4      -0.00269573      -0.00133667      -0.18819825       0.00000000
Au       8.73600000      10.08746390       6.00000000        4       0.00006997      -0.00062190      -0.18971405       0.00000000
Au      11.64800000      10.08746390       6.00000000        4      -0.00084267      -0.00408669      -0.18836796       0.00000000
Au      14.56000000      10.08746390       6.00000000        4      -0.00200343      -0.00182565      -0.18031323       0.00000000
Au      17.47200000      10.08746390       6.00000000        4      -0.00047433      -0.00191137      -0.18103323       0.00000000
Au      20.38400000      10.08746390       6.00000000        4      -0.00203147      -0.00497442      -0.18831147       0.00000000
Au       7.28000000      12.60932988       6.00000000        4      -0.00151089       0.00627609      -0.18675501       0.00000000
Au      10.19200000      12.60932988       6.00000000        4      -0.00421948       0.00184908      -0.19040956       0.00000000
Au      13.10400000      12.60932988       6.00000000        4       0.00195057      -0.00101076      -0.19324128       0.00000000
Au      16.01600000      12.60932988       6.00000000        4      -0.00097642       0.00166529      -0.18237154       0.00000000
Au      18.92800000      12.60932988       6.00000000        4      -0.00483568      -0.00030949      -0.19071866       0.00000000
Au      21.84000000      12.60932988       6.00000000        4       0.00174577       0.00233505      -0.18830158       0.00000000
Au       1.45600000       0.84062199       8.37763804        3       0.01154320       0.00940336       0.15228058       0.00000000
Au       4.36800000       0.84062199       8.37763804        3       0.01457670      -0.00089782       0.17774335       0.00000000
Au       7.28000000       0.84062199       8.37763804        3       0.00159228       0.00364969       0.20623721       0.00000000
Au      10.19200000       0.84062199       8.37763804        3      -0.01147073      -0.00066761       0.18181716       0.00000000
Au      13.10400000       0.84062199       8.37763804        3      -0.00708673       0.00782210       0.16454959       0.00000000
Au      16.01600000       0.84062199       8.37763804        3      -0.00300658      -0.00256720       0.15010510       0.00000000
Au       2.91200000       3.36248797       8.37763804        3       0.01470198       0.00879451       0.16368473       0.00000000
Au       5.82400000       3.36248797       8.37763804        3       0.00916694       0.00309204       0.19648118       0.00000000
Au       8.73600000       3.36248797       8.37763804        3      -0.00677436       0.00262276       0.19892861       0.00000000
Au      11.64800000       3.36248797       8.37763804        3      -0.01255930       0.00818028       0.16660289       0.00000000
Au      14.56000000       3.36248797       8.37763804        3      -0.00212479       0.00529553       0.16937740       0.00000000
Au      17.47200000       3.36248797       8.37763804        3       0.00303765       0.01217509       0.16130433       0.00000000
Au       4.36800000       5.88435394       8.37763804        3       0.00853548      -0.00189563       0.19411181       0.00000000
Au       7.28000000       5.88435394       8.37763804        3       0.00124802      -0.00502219       0.21061155       0.00000000
Au      10.19200000       5.88435394       8.37763804        3      -0.00664273      -0.00164729       0.19489695       0.00000000
Au      13.10400000       5.88435394       8.37763804        3       0.00691840       0.00879762       0.17789631       0.00000000
Au      16.01600000       5.88435394       8.37763804        3       0.00051743       0.01408800       0.18230371       0.00000000
Au      18.92800000       5.88435394       8.37763804        3      -0.00540175       0.00992692       0.17681488       0.00000000
Au       5.82400000       8.40621992       8.37763804        3       0.00297742      -0.00844168       0.17533848       0.00000000
Au       8.73600000       8.40621992       8.37763804        3      -0.00108158      -0.00950606       0.17471882       0.00000000
Au      11.64800000       8.40621992       8.37763804        3       0.00777589       0.00525578       0.18270819       0.00000000
Au      14.56000000       8.40621992       8.37763804        3       0.00309616      -0.00234085       0.18344351       0.00000000
Au      17.47200000       8.40621992       8.37763804        3      -0.00087332      -0.00215948       0.18416922       0.00000000
Au      20.38400000       8.40621992       8.37763804        3      -0.00609392       0.00698444       0.18497743       0.00000000
Au       7.28000000      10.92808590       8.37763804        3       0.00005780      -0.01330552       0.16214327       0.00000000
Au      10.19200000      10.92808590       8.37763804        3       0.01408518      -0.00387746       0.17566307       0.00000000
Au      13.10400000      10.92808590       8.37763804        3       0.00642597       0.00492251       0.18288829       0.00000000
Au      16.01600000      10.92808590       8.37763804        3       0.00187971       0.00921204       0.19764310       0.00000000
Au      18.92800000      10.92808590       8.37763804        3      -0.00399866       0.00621113       0.18604916       0.00000000
Au      21.84000000      10.92808590       8.37763804        3      -0.01225912      -0.00311504       0.17783627       0.00000000
Au       8.73600000      13.44995187       8.37763804        3      -0.00535389      -0.00213559       0.15290554       0.00000000
Au      11.64800000      13.44995187       8.37763804        3       0.01917462      -0.01089470       0.17067047       0.00000000
Au      14.56000000      13.44995187       8.37763804        3       0.00374532      -0.01068017       0.18722875       0.00000000
Au      17.47200000      13.44995187       8.37763804        3      -0.00088635      -0.01137093       0.18908412       0.00000000
Au      20.38400000      13.44995187       8.37763804        3      -0.01183121      -0.00799238       0.17963850       0.00000000
Au      23.29600000      13.44995187       8.37763804        3       0.00104608      -0.00236886       0.15587988       0.00000000
Au       0.00406280       1.68389027      10.73950991        2       0.00457297       0.00616337      -0.00892759       0.00000000
Au       2.92460860       1.68935478      10.74293609        2       0.00418092       0.00097368       0.00150147       0.00000000
Au       5.83501586       1.68434821      10.75514813        2      -0.00193278      -0.00284551       0.00097441       0.00000000
Au       8.73388413       1.68378262      10.75572118        2       0.00232018       0.00012299      -0.00093281       0.00000000
Au      11.64428051       1.68968933      10.74355156        2      -0.00317306       0.00020981       0.00349021       0.00000000
Au      14.56489423       1.68231001      10.74361425        2      -0.00568874       0.00489556      -0.00831742       0.00000000
Au       1.46673950       4.20902420      10.74312445        2       0.00043122       0.00402522       0.00124637       0.00000000
Au       4.38133770       4.21118210      10.75234273        2      -0.00277195      -0.00110794       0.00156479       0.00000000
Au       7.28433498       4.20558748      10.76078603        2      -0.00022276       0.00326477      -0.00333818       0.00000000
Au      10.18704797       4.21117327      10.75230126        2       0.00327046      -0.00229355      -0.00040802       0.00000000
Au      13.10225783       4.20857042      10.74346876        2       0.00059165       0.00321496       0.00254627       0.00000000
Au      16.01996999       4.20768370      10.74290057        2      -0.00029530       0.00535173       0.00011366       0.00000000
Au       2.91464468       6.73395967      10.75068465        2       0.00061171      -0.00027688      -0.00367149       0.00000000
Au       5.82695265       6.72531392      10.75631361        2      -0.00105239      -0.00163057      -0.00364232       0.00000000
Au       8.74151885       6.72499735      10.75629155        2       0.00241699      -0.00009446      -0.00373103       0.00000000
Au      11.65422299       6.73401396      10.75062612        2      -0.00199054       0.00021494      -0.00448743       0.00000000
Au      14.56300243       6.73452753      10.75249793        2      -0.00099752      -0.00076931       0.00323554       0.00000000
Au      17.47741816       6.73419976      10.75241062        2       0.00165304       0.00026547       0.00245304       0.00000000
Au       4.37001927       9.24208818      10.74754717        2      -0.00029364       0.00091982       0.00107271       0.00000000
Au       7.28442589       9.24011792      10.74669518        2      -0.00048995       0.00289895       0.00714548       0.00000000
Au      10.19868558       9.24185116      10.74726831        2       0.00206567       0.00122517       0.00065419       0.00000000
Au      13.11515727       9.25032779      10.75267064        2      -0.00044047      -0.00128616      -0.00096036       0.00000000
Au      16.02041618       9.25228607      10.75393116        2      -0.00121902       0.00150058      -0.00581983       0.00000000
Au      18.92539065       9.25050021      10.75306589        2       0.00120359      -0.00211874      -0.00360731       0.00000000
Au       5.82880188      11.76882868      10.74180529        2      -0.00292853      -0.00511508      -0.00327409       0.00000000
Au       8.74023753      11.76939215      10.74083312        2       0.00278753      -0.00646831      -0.00403677       0.00000000
Au      11.65672684      11.76888454      10.74935612        2       0.00180063      -0.00158456       0.00155618       0.00000000
Au      14.56912406      11.76758084      10.75749534        2       0.00042436      -0.00031548       0.00044773       0.00000000
Au      17.47146708      11.76736929      10.75833241        2       0.00004129       0.00149585      -0.00258085       0.00000000
Au      20.38456442      11.76963132      10.74978393        2      -0.00182069      -0.00082121       0.00157372       0.00000000
Au       7.28285861      14.29361560      10.74465933        2      -0.00158036      -0.00467823      -0.00935394       0.00000000
Au      10.19646979      14.29463872      10.73640982        2       0.00842980      -0.00109039      -0.00599381       0.00000000
Au      13.11762710      14.29213194      10.74795660        2       0.00115533      -0.00128773       0.00352662       0.00000000
Au      16.02032917      14.28820405      10.75462130        2      -0.00060627       0.00158243      -0.00303818       0.00000000
Au      18.92286258      14.29169507      10.74811840        2       0.00046699      -0.00119925       0.00337375       0.00000000
Au      21.84534805      14.29538989      10.74045508        2      -0.00673660      -0.00079208      -0.00365793       0.00000000
Au       0.00336859       0.00480877      13.16996970        1       0.00208659       0.00067235      -0.01094399       0.00000000
Au       2.91637159       0.00407653      13.14716515        1      -0.00074633       0.00082182      -0.00892434       0.00000000
Au       5.83466759       0.00531235      13.19782102        1       0.00510860       0.00123956       0.00280349       0.00000000
Au       8.73740819       0.00521081      13.19785623        1      -0.00296274       0.00093407       0.00381034       0.00000000
Au      11.65651270       0.00381855      13.14518950        1      -0.00092647       0.00153093      -0.00792096       0.00000000
Au      14.57217179       0.00458920      13.18500193        1      -0.00088207       0.00122185      -0.01414344       0.00000000
Au       1.45810171       2.51949557      13.15814670        1      -0.00031065       0.00037110      -0.01159164       0.00000000
Au       4.37755930       2.52949064      13.17460014        1       0.00490330       0.00185216      -0.00608659       0.00000000
Au       7.28619983       2.52928526      13.21506230        1       0.00119622      -0.00091456       0.00451577       0.00000000
Au      10.19528139       2.53009146      13.17467193        1      -0.00415452       0.00138241      -0.00499073       0.00000000
Au      13.11639529       2.51996274      13.15839292        1      -0.00069354       0.00061146      -0.01011620       0.00000000
Au      16.02414674       2.52525551      13.16901328        1       0.00114316       0.00111423      -0.01156119       0.00000000
Au       2.91777835       5.05519411      13.17013065        1       0.00114629       0.00184672      -0.00048536       0.00000000
Au       5.83347135       5.05256251      13.21110615        1      -0.00004172      -0.00126132       0.00308625       0.00000000
Au       8.73875920       5.05281185      13.21132344        1       0.00154453      -0.00157633       0.00242465       0.00000000
Au      11.65475610       5.05546977      13.16837973        1      -0.00103535       0.00148282      -0.00040866       0.00000000
Au      14.56502971       5.04737084      13.15737620        1      -0.00232336       0.00270950      -0.00886236       0.00000000
Au      17.48049782       5.04648109      13.15696527        1       0.00244473       0.00231116      -0.00886746       0.00000000
Au       4.37420281       7.56552859      13.20893788        1       0.00066954       0.00105109       0.00421884       0.00000000
Au       7.28661104       7.56899891      13.18625757        1       0.00033313       0.00104905       0.00091549       0.00000000
Au      10.19926140       7.56606898      13.20856074        1      -0.00068990      -0.00019412       0.00300072       0.00000000
Au      13.10806074       7.57422770      13.20998853        1       0.00213955      -0.00143366       0.00346838       0.00000000
Au      16.02254565       7.57281265      13.18613521        1      -0.00023183      -0.00103284       0.00038296       0.00000000
Au      18.93700811       7.57341969      13.20944645        1      -0.00061439      -0.00072900       0.00271510       0.00000000
Au       5.82612233      10.09510356      13.15741606        1       0.00125667      -0.00371136      -0.00853788       0.00000000
Au       8.74792022      10.09529467      13.15633473        1      -0.00067368      -0.00253424      -0.00905253       0.00000000
Au      11.65555045      10.08527269      13.17097170        1       0.00054513      -0.00004356      -0.00155340       0.00000000
Au      14.56921229      10.08798654      13.20951354        1      -0.00274534       0.00100993       0.00334207       0.00000000
Au      17.47516276      10.08758246      13.20920797        1       0.00390318       0.00144898       0.00357937       0.00000000
Au      20.38944143      10.08465799      13.16922034        1      -0.00049428      -0.00021504      -0.00043805       0.00000000
Au       7.28857058      12.61439306      13.16965708        1       0.00179452      -0.00079371      -0.01180504       0.00000000
Au      10.19479107      12.62262740      13.15824855        1       0.00060236      -0.00191087      -0.01086581       0.00000000
Au      13.11488838      12.61160582      13.17580453        1       0.00287269      -0.00106197      -0.00676287       0.00000000
Au      16.02218850      12.61394146      13.21507640        1       0.00111497       0.00165888       0.00424277       0.00000000
Au      18.93047002      12.61076549      13.17553409        1      -0.00219118      -0.00042769      -0.00528024       0.00000000
Au      21.85299485      12.62162037      13.15854679        1      -0.00217399      -0.00239306      -0.00913484       0.00000000
N       -0.00186417      -0.00104339      16.56008150        0       0.00433878      -0.00281911       0.00111290       0.00000000
C       -2.83405466      -0.00126027      16.54994517        0      -0.02520591       0.00569934       0.01116034       0.00000000
C       -2.11559570       1.21799169      16.55551653        0       0.01646614      -0.01711306       0.00530831       0.00000000
C       -0.70110159       1.21354492      16.55539475        0       0.01787697      -0.01545334       0.00695188       0.00000000
C       -0.70091772      -1.21554411      16.55662170        0       0.01031214       0.00516148       0.00703605       0.00000000
C       -2.11535459      -1.22035277      16.55641648        0       0.00312044       0.02580423       0.00524940       0.00000000
C       -2.82628704      -2.45746656      16.53308621        0      -0.00736751       0.01133124      -0.00042046       0.00000000
C       -4.24691945      -2.45649642      16.49895024        0       0.00955244      -0.00640578       0.00878128       0.00000000
C       -4.96127697      -1.23040529      16.50311175        0       0.00300125      -0.01463824      -0.00060324       0.00000000
C       -4.25439759      -0.00089838      16.52995879        0      -0.00133875      -0.00236250       0.00497780       0.00000000
C       -4.96099193       1.22878341      16.50299211        0       0.00338275       0.00616011      -0.00090151       0.00000000
C       -4.24647569       2.45475865      16.49889657        0       0.00394624       0.00387799       0.00832224       0.00000000
C       -2.82582347       2.45553939      16.53206713        0      -0.01417315      -0.01765907      -0.00027755       0.00000000
C       -2.12170438       3.68201580      16.51121503        0      -0.01027911       0.00234018       0.00635731       0.00000000
C       -0.70612366       3.67368286      16.51304277        0      -0.01051100       0.01876767       0.00408217       0.00000000
C        0.00782259       2.44458635      16.53532064        0       0.00807405       0.00652318       0.00492542       0.00000000
C        1.42196720       2.45758258      16.50723037        0       0.00071943      -0.01187383       0.00173919       0.00000000
C        2.11511656       1.22292416      16.51295729        0       0.00762695      -0.00168319       0.00236482       0.00000000
C        1.40650436      -0.00133503      16.53583658        0      -0.02585206      -0.00162976       0.00416402       0.00000000
C        2.11488213      -1.22591861      16.51372658        0       0.00445714       0.01031744       0.00262508       0.00000000
C        1.42143051      -2.46038541      16.50844312        0       0.00809863       0.01893753       0.00197482       0.00000000
C        0.00732923      -2.44699234      16.53710376        0       0.01175419      -0.00484014       0.00471245       0.00000000
C       -0.70685409      -3.67597365      16.51528120        0      -0.00458088      -0.01582970       0.00356822       0.00000000
C       -2.12235700      -3.68410137      16.51292463        0      -0.00710414      -0.00378901       0.00594895       0.00000000
C       -2.83911563      -4.92112307      16.45647840        0      -0.00526789      -0.01901355       0.00828059       0.00000000
C       -4.23954706      -4.89975151      16.42316209        0       0.00394777      -0.00062130       0.00310179       0.00000000
C       -4.95839427      -3.69729664      16.44750978        0      -0.01919756       0.00740297       0.00924455       0.00000000
C       -6.38704497      -3.66552356      16.37947362        0      -0.00530988       0.01041845       0.00239911       0.00000000
C       -7.07425395      -2.48125982      16.36902634        0       0.01567817      -0.00872171       0.00364858       0.00000000
C       -6.38841816      -1.22717085      16.44196943        0       0.00600262       0.00290986       0.00742557       0.00000000
C       -7.06699675      -0.00084767      16.40748306        0       0.01946952       0.00169445       0.01316084       0.00000000
C       -6.38823058       1.22526725      16.44207219        0       0.00907482       0.00078199       0.00757853       0.00000000
C       -7.07395758       2.47941406      16.36950564        0       0.01637364       0.01406444       0.00380046       0.00000000
C       -6.38691888       3.66381673      16.38033752        0      -0.00384677      -0.01596009       0.00305525       0.00000000
C       -4.95819410       3.69532105      16.44825419        0      -0.02075540      -0.00029503       0.00917936       0.00000000
C       -4.23941087       4.89771013      16.42406078        0       0.01465403       0.00320273       0.00310506       0.00000000
C       -2.83886983       4.91895380      16.45544502        0      -0.00607357       0.01717540       0.00804902       0.00000000
C       -2.09363309       6.13995167      16.40818370        0      -0.00637470       0.01114609       0.00429935       0.00000000
C       -0.72768013       6.13514208      16.40940507        0       0.03010596       0.00476252       0.00514446       0.00000000
C        0.01306042       4.91005729      16.45862241        0       0.01243518       0.00473029       0.00861204       0.00000000
C        1.41240959       4.89245474      16.42947622        0      -0.00532942       0.01025478       0.00360834       0.00000000
C        2.13455380       3.69218309      16.45658310        0       0.00432565      -0.00565308       0.00968147       0.00000000
C        3.56256359       3.65503716      16.38851272        0      -0.01703755       0.00130138       0.00803652       0.00000000
C        4.23627742       2.46629122      16.38281178        0      -0.00579694       0.01715450       0.00523151       0.00000000
C        3.54538587       1.21509852      16.45850159        0       0.00001342      -0.00844540       0.00651002       0.00000000
C        4.22933961      -0.00149642      16.42945254        0       0.00589147       0.00301905       0.00946882       0.00000000
C        3.54518260      -1.21788423      16.45899000        0      -0.00636704       0.00205792       0.00680294       0.00000000
C        4.23587472      -2.46902881      16.38304124        0      -0.01405634      -0.03374073       0.00485421       0.00000000
C        3.56221487      -3.65812904      16.38875355        0      -0.01607392       0.01945883       0.00846713       0.00000000
C        2.13420286      -3.69467829      16.45719409        0       0.00430005      -0.00710298       0.00946840       0.00000000
C        1.41193916      -4.89486895      16.42996201        0      -0.01746831      -0.00558524       0.00445543       0.00000000
C        0.01244885      -4.91227591      16.46067742        0       0.01639144      -0.00430663       0.00885709       0.00000000
C       -0.72800382      -6.13739736      16.41234704        0       0.02635329      -0.00516044       0.00541396       0.00000000
C       -2.09391228      -6.14219508      16.41064730        0      -0.00862363      -0.00946479       0.00437923       0.00000000
H       -4.78412872      -5.84425994      16.35235597        0       0.00575830       0.00488947      -0.00030906       0.00000000
H       -6.92499899      -4.61233313      16.30095083        0       0.00407346       0.00249979       0.00205342       0.00000000
H       -8.16311614      -2.47694397      16.29361691        0      -0.00381863       0.00001325       0.00133301       0.00000000
H       -8.15604298      -0.00047230      16.32878924        0      -0.03236830      -0.00127741      -0.00809013       0.00000000
H       -8.16268560       2.47517248      16.29412109        0      -0.00858053      -0.00056807       0.00072102       0.00000000
H       -6.92485273       4.61077488      16.30224523        0       0.00576558      -0.00570978       0.00198588       0.00000000
H       -4.78340543       5.84256885      16.35366324        0       0.00294859      -0.00570409      -0.00037556       0.00000000
H       -2.64129314       7.08175828      16.33700557        0      -0.00042008      -0.00868655       0.00294846       0.00000000
H       -0.17165078       7.07260573      16.33892144        0      -0.01301263      -0.02156612       0.00330181       0.00000000
H        1.95475716       5.83807021      16.35905079        0      -0.00225708      -0.00318078      -0.00072901       0.00000000
H        4.10557673       4.59832373      16.30569626        0      -0.00004595      -0.00636436       0.00082051       0.00000000
H        5.32450687       2.44974767      16.30591768        0       0.00757815      -0.00571757       0.00155783       0.00000000
H        5.31901296      -0.00173757      16.35323286        0      -0.00970958       0.00047955      -0.00383701       0.00000000
H        5.32383521      -2.45257157      16.30572133        0       0.01613424       0.00618031       0.00155527       0.00000000
H        4.10514921      -4.60130029      16.30543510        0       0.00078789       0.00379591       0.00082134       0.00000000
H        1.95355092      -5.84070714      16.35906846        0       0.00202623       0.00050134      -0.00107931       0.00000000
H       -0.17202982      -7.07485731      16.34227609        0      -0.01155850       0.02004499       0.00315095       0.00000000
H       -2.64172244      -7.08391088      16.33962744        0      -0.00012476       0.00805136       0.00282224       0.00000000
